<?xml version="1.0" encoding="UTF-8"?>

<!-- generated on Wed Jun 29 22:46:39 2016 by SUMO Version 0.25.0
<?xml version="1.0" encoding="UTF-8"?>

<configuration xmlns:xsi="http://www.w3.org/2001/XMLSchema-instance" xsi:noNamespaceSchemaLocation="http://sumo.dlr.de/xsd/sumoConfiguration.xsd">

    <input>
        <net-file value="data/zorilor.net.xml"/>
        <route-files value="data/zorilor.rou.xml"/>
        <additional-files value="data/zorilor.det.xml"/>
    </input>

    <output>
        <tripinfo-output value="tripinfo.xml"/>
        <save-state.prefix value="data/state"/>
    </output>

    <time>
        <begin value="0"/>
        <end value="10000"/>
    </time>

    <emissions>
        <phemlight-path value="data/./PHEMlight/"/>
    </emissions>

    <traci_server>
        <remote-port value="8873"/>
    </traci_server>

</configuration>
-->

<tripinfos xmlns:xsi="http://www.w3.org/2001/XMLSchema-instance" xsi:noNamespaceSchemaLocation="http://sumo.dlr.de/xsd/tripinfo_file.xsd">
    <tripinfo id="veh0" depart="15.00" departLane="-46331812_0" departPos="7.10" departSpeed="0.00" departDelay="0.00" arrival="38.00" arrivalLane="31649598#1_0" arrivalPos="146.86" arrivalSpeed="19.21" duration="23.00" routeLength="398.86" waitSteps="0" timeLoss="2.02" rerouteNo="0" devices="tripinfo_veh0" vType="model147" vaporized=""/>
    <tripinfo id="veh1" depart="30.00" departLane="-46331812_0" departPos="7.10" departSpeed="0.00" departDelay="0.00" arrival="60.00" arrivalLane="31649598#1_0" arrivalPos="146.86" arrivalSpeed="18.91" duration="30.00" routeLength="398.86" waitSteps="0" timeLoss="8.38" rerouteNo="0" devices="tripinfo_veh1" vType="model186" vaporized=""/>
    <tripinfo id="veh2" depart="45.00" departLane="-46331812_0" departPos="7.10" departSpeed="0.00" departDelay="0.00" arrival="69.00" arrivalLane="31649598#1_0" arrivalPos="146.86" arrivalSpeed="19.19" duration="24.00" routeLength="398.86" waitSteps="0" timeLoss="2.55" rerouteNo="0" devices="tripinfo_veh2" vType="model152" vaporized=""/>
    <tripinfo id="veh3" depart="60.00" departLane="-46331812_0" departPos="7.10" departSpeed="0.00" departDelay="0.00" arrival="90.00" arrivalLane="31649598#1_0" arrivalPos="146.86" arrivalSpeed="18.28" duration="30.00" routeLength="398.86" waitSteps="0" timeLoss="7.96" rerouteNo="0" devices="tripinfo_veh3" vType="model132" vaporized=""/>
    <tripinfo id="veh4" depart="75.00" departLane="-46331812_0" departPos="7.10" departSpeed="0.00" departDelay="0.00" arrival="95.00" arrivalLane="31649598#1_0" arrivalPos="146.86" arrivalSpeed="22.00" duration="20.00" routeLength="398.86" waitSteps="0" timeLoss="1.79" rerouteNo="0" devices="tripinfo_veh4" vType="model182" vaporized=""/>
    <tripinfo id="veh5" depart="90.00" departLane="-46331812_0" departPos="7.10" departSpeed="0.00" departDelay="0.00" arrival="115.00" arrivalLane="31649598#1_0" arrivalPos="146.86" arrivalSpeed="18.58" duration="25.00" routeLength="398.86" waitSteps="0" timeLoss="2.90" rerouteNo="0" devices="tripinfo_veh5" vType="model52" vaporized=""/>
    <tripinfo id="veh6" depart="105.00" departLane="-46331812_0" departPos="7.10" departSpeed="0.00" departDelay="0.00" arrival="136.00" arrivalLane="31649598#1_0" arrivalPos="146.86" arrivalSpeed="20.82" duration="31.00" routeLength="398.86" waitSteps="0" timeLoss="11.72" rerouteNo="0" devices="tripinfo_veh6" vType="model194" vaporized=""/>
    <tripinfo id="veh7" depart="120.00" departLane="-46331812_0" departPos="7.10" departSpeed="0.00" departDelay="0.00" arrival="144.00" arrivalLane="31649598#1_0" arrivalPos="146.86" arrivalSpeed="18.85" duration="24.00" routeLength="398.86" waitSteps="0" timeLoss="2.44" rerouteNo="0" devices="tripinfo_veh7" vType="model78" vaporized=""/>
    <tripinfo id="veh8" depart="135.00" departLane="-46331812_0" departPos="7.10" departSpeed="0.00" departDelay="0.00" arrival="167.00" arrivalLane="31649598#1_0" arrivalPos="146.86" arrivalSpeed="18.22" duration="32.00" routeLength="398.86" waitSteps="0" timeLoss="9.79" rerouteNo="0" devices="tripinfo_veh8" vType="model140" vaporized=""/>
    <tripinfo id="veh9" depart="150.00" departLane="-46331812_0" departPos="7.10" departSpeed="0.00" departDelay="0.00" arrival="182.00" arrivalLane="31649598#1_0" arrivalPos="146.86" arrivalSpeed="19.33" duration="32.00" routeLength="398.86" waitSteps="0" timeLoss="10.83" rerouteNo="0" devices="tripinfo_veh9" vType="model131" vaporized=""/>
    <tripinfo id="veh10" depart="165.00" departLane="-46331812_0" departPos="7.10" departSpeed="0.00" departDelay="0.00" arrival="191.00" arrivalLane="31649598#1_0" arrivalPos="146.86" arrivalSpeed="18.08" duration="26.00" routeLength="398.86" waitSteps="0" timeLoss="3.02" rerouteNo="0" devices="tripinfo_veh10" vType="model169" vaporized=""/>
    <tripinfo id="veh11" depart="180.00" departLane="-46331812_0" departPos="7.10" departSpeed="0.00" departDelay="0.00" arrival="209.00" arrivalLane="31649598#1_0" arrivalPos="146.86" arrivalSpeed="21.07" duration="29.00" routeLength="398.86" waitSteps="0" timeLoss="9.76" rerouteNo="0" devices="tripinfo_veh11" vType="model23" vaporized=""/>
    <tripinfo id="veh12" depart="195.00" departLane="-46331812_0" departPos="7.10" departSpeed="0.00" departDelay="0.00" arrival="226.00" arrivalLane="31649598#1_0" arrivalPos="146.86" arrivalSpeed="21.10" duration="31.00" routeLength="398.86" waitSteps="0" timeLoss="11.81" rerouteNo="0" devices="tripinfo_veh12" vType="model107" vaporized=""/>
    <tripinfo id="veh13" depart="210.00" departLane="-46331812_0" departPos="7.10" departSpeed="0.00" departDelay="0.00" arrival="242.00" arrivalLane="31649598#1_0" arrivalPos="146.86" arrivalSpeed="18.34" duration="32.00" routeLength="398.86" waitSteps="0" timeLoss="9.96" rerouteNo="0" devices="tripinfo_veh13" vType="model32" vaporized=""/>
    <tripinfo id="veh14" depart="225.00" departLane="-46331812_0" departPos="7.10" departSpeed="0.00" departDelay="0.00" arrival="247.00" arrivalLane="31649598#1_0" arrivalPos="146.86" arrivalSpeed="20.68" duration="22.00" routeLength="398.86" waitSteps="0" timeLoss="1.92" rerouteNo="0" devices="tripinfo_veh14" vType="model22" vaporized=""/>
    <tripinfo id="veh15" depart="240.00" departLane="-46331812_0" departPos="7.10" departSpeed="0.00" departDelay="0.00" arrival="264.00" arrivalLane="31649598#1_0" arrivalPos="146.86" arrivalSpeed="18.94" duration="24.00" routeLength="398.86" waitSteps="0" timeLoss="2.00" rerouteNo="0" devices="tripinfo_veh15" vType="model33" vaporized=""/>
    <tripinfo id="veh16" depart="255.00" departLane="-46331812_0" departPos="7.10" departSpeed="0.00" departDelay="0.00" arrival="276.00" arrivalLane="31649598#1_0" arrivalPos="146.86" arrivalSpeed="21.27" duration="21.00" routeLength="398.86" waitSteps="0" timeLoss="1.94" rerouteNo="0" devices="tripinfo_veh16" vType="model95" vaporized=""/>
    <tripinfo id="veh17" depart="270.00" departLane="-46331812_0" departPos="7.10" departSpeed="0.00" departDelay="0.00" arrival="299.00" arrivalLane="31649598#1_0" arrivalPos="146.86" arrivalSpeed="20.93" duration="29.00" routeLength="398.86" waitSteps="0" timeLoss="9.74" rerouteNo="0" devices="tripinfo_veh17" vType="model159" vaporized=""/>
    <tripinfo id="veh18" depart="285.00" departLane="-46331812_0" departPos="7.10" departSpeed="0.00" departDelay="0.00" arrival="309.00" arrivalLane="31649598#1_0" arrivalPos="146.86" arrivalSpeed="18.94" duration="24.00" routeLength="398.86" waitSteps="0" timeLoss="2.00" rerouteNo="0" devices="tripinfo_veh18" vType="model33" vaporized=""/>
    <tripinfo id="veh19" depart="300.00" departLane="-46331812_0" departPos="7.10" departSpeed="0.00" departDelay="0.00" arrival="322.00" arrivalLane="31649598#1_0" arrivalPos="146.86" arrivalSpeed="20.15" duration="22.00" routeLength="398.86" waitSteps="0" timeLoss="1.74" rerouteNo="0" devices="tripinfo_veh19" vType="model2" vaporized=""/>
    <tripinfo id="veh20" depart="315.00" departLane="-46331812_0" departPos="7.10" departSpeed="0.00" departDelay="0.00" arrival="336.00" arrivalLane="31649598#1_0" arrivalPos="146.86" arrivalSpeed="21.57" duration="21.00" routeLength="398.86" waitSteps="0" timeLoss="2.13" rerouteNo="0" devices="tripinfo_veh20" vType="model74" vaporized=""/>
    <tripinfo id="veh21" depart="330.00" departLane="-46331812_0" departPos="7.10" departSpeed="0.00" departDelay="0.00" arrival="351.00" arrivalLane="31649598#1_0" arrivalPos="146.86" arrivalSpeed="21.32" duration="21.00" routeLength="398.86" waitSteps="0" timeLoss="1.74" rerouteNo="0" devices="tripinfo_veh21" vType="model173" vaporized=""/>
    <tripinfo id="veh22" depart="345.00" departLane="-46331812_0" departPos="7.10" departSpeed="0.00" departDelay="0.00" arrival="377.00" arrivalLane="31649598#1_0" arrivalPos="146.86" arrivalSpeed="18.11" duration="32.00" routeLength="398.86" waitSteps="0" timeLoss="9.87" rerouteNo="0" devices="tripinfo_veh22" vType="model47" vaporized=""/>
    <tripinfo id="veh23" depart="360.00" departLane="-46331812_0" departPos="7.10" departSpeed="0.00" departDelay="0.00" arrival="390.00" arrivalLane="31