<?xml version="1.0" encoding="UTF-8"?>

<!-- generated on Wed May 11 17:52:51 2016 by SUMO gui Version 0.25.0
<?xml version="1.0" encoding="UTF-8"?>

<configuration xmlns:xsi="http://www.w3.org/2001/XMLSchema-instance" xsi:noNamespaceSchemaLocation="http://sumo.dlr.de/xsd/sumo-gui.exeConfiguration.xsd">

    <input>
        <net-file value="data/zorilor.net.xml"/>
        <route-files value="data/zorilor.rou.xml"/>
    </input>

    <output>
        <tripinfo-output value="tripinfo.xml"/>
        <save-state.prefix value="data/state"/>
    </output>

    <time>
        <begin value="0"/>
        <end value="10000"/>
    </time>

    <traci_server>
        <remote-port value="8873"/>
    </traci_server>

</configuration>
-->

<tripinfos xmlns:xsi="http://www.w3.org/2001/XMLSchema-instance" xsi:noNamespaceSchemaLocation="http://sumo.dlr.de/xsd/tripinfo_file.xsd">
    <tripinfo id="veh1" depart="1.00" departLane="-10510908#0_0" departPos="7.10" departSpeed="0.00" departDelay="0.00" arrival="30.00" arrivalLane="-55557174_0" arrivalPos="212.37" arrivalSpeed="27.78" duration="29.00" routeLength="425.93" waitSteps="0" timeLoss="13.39" rerouteNo="0" devices="tripinfo_veh1" vType="Car" vaporized=""/>
    <tripinfo id="veh2" depart="5.00" departLane="-10510908#0_0" departPos="7.10" departSpeed="0.00" departDelay="3.00" arrival="35.00" arrivalLane="-55557174_0" arrivalPos="212.37" arrivalSpeed="27.78" duration="30.00" routeLength="425.93" waitSteps="0" timeLoss="13.89" rerouteNo="0" devices="tripinfo_veh2" vType="Car" vaporized=""/>
    <tripinfo id="veh4" depart="10.00" departLane="-10510908#0_0" departPos="7.10" departSpeed="0.00" departDelay="6.00" arrival="39.00" arrivalLane="-55557174_0" arrivalPos="212.37" arrivalSpeed="27.78" duration="29.00" routeLength="425.93" waitSteps="0" timeLoss="13.39" rerouteNo="0" devices="tripinfo_veh4" vType="Car" vaporized=""/>
    <tripinfo id="veh5" depart="5.00" departLane="55557174_1" departPos="7.10" departSpeed="0.00" departDelay="0.00" arrival="42.00" arrivalLane="10510908#0_0" arrivalPos="194.01" arrivalSpeed="20.86" duration="37.00" routeLength="416.06" waitSteps="0" timeLoss="21.50" rerouteNo="0" devices="tripinfo_veh5" vType="Car" vaporized=""/>
    <tripinfo id="veh13" depart="14.00" departLane="-10510908#0_1" departPos="7.10" departSpeed="0.00" departDelay="1.00" arrival="43.00" arrivalLane="-55557174_0" arrivalPos="212.37" arrivalSpeed="27.78" duration="29.00" routeLength="425.93" waitSteps="0" timeLoss="13.39" rerouteNo="0" devices="tripinfo_veh13" vType="Car" vaporized=""/>
    <tripinfo id="veh7" depart="14.00" departLane="-10510908#0_0" departPos="7.10" departSpeed="0.00" departDelay="7.00" arrival="48.00" arrivalLane="-55557174_0" arrivalPos="212.37" arrivalSpeed="27.50" duration="34.00" routeLength="425.93" waitSteps="0" timeLoss="18.38" rerouteNo="0" devices="tripinfo_veh7" vType="Car" vaporized=""/>
    <tripinfo id="veh12" depart="12.00" departLane="55557174_1" departPos="7.10" departSpeed="0.00" departDelay="0.00" arrival="49.00" arrivalLane="10510908#0_0" arrivalPos="194.01" arrivalSpeed="20.86" duration="37.00" routeLength="416.06" waitSteps="0" timeLoss="21.50" rerouteNo="0" devices="tripinfo_veh12" vType="Car" vaporized=""/>
    <tripinfo id="veh14" depart="14.00" departLane="55557174_0" departPos="7.10" departSpeed="0.00" departDelay="0.00" arrival="53.00" arrivalLane="10510908#0_0" arrivalPos="194.01" arrivalSpeed="21.11" duration="39.00" routeLength="416.06" waitSteps="0" timeLoss="23.10" rerouteNo="0" devices="tripinfo_veh14" vType="Car" vaporized=""/>
    <tripinfo id="veh16" depart="16.00" departLane="55557174_1" departPos="7.10" departSpeed="0.00" departDelay="0.00" arrival="61.00" arrivalLane="10510908#0_0" arrivalPos="194.01" arrivalSpeed="20.00" duration="45.00" routeLength="416.06" waitSteps="1" timeLoss="29.39" rerouteNo="0" devices="tripinfo_veh16" vType="Car" vaporized=""/>
    <tripinfo id="veh0" depart="0.00" departLane="23893226_0" departPos="7.10" departSpeed="0.00" departDelay="0.00" arrival="80.00" arrivalLane="7927518_0" arrivalPos="193.91" arrivalSpeed="13.89" duration="80.00" routeLength="839.64" waitSteps="0" timeLoss="14.09" rerouteNo="0" devices="tripinfo_veh0" vType="Car" vaporized=""/>
    <tripinfo id="veh3" depart="4.00" departLane="23893226_0" departPos="7.10" departSpeed="0.00" departDelay="1.00" arrival="83.00" arrivalLane="7927518_0" arrivalPos="193.91" arrivalSpeed="13.89" duration="79.00" routeLength="839.64" waitSteps="0" timeLoss="13.10" rerouteNo="0" devices="tripinfo_veh3" vType="Car" vaporized=""/>
    <tripinfo id="veh6" depart="9.00" departLane="23893226_0" departPos="7.10" departSpeed="0.00" departDelay="3.00" arrival="89.00" arrivalLane="7927518_0" arrivalPos="193.91" arrivalSpeed="13.89" duration="80.00" routeLength="839.64" waitSteps="0"